ITEM: TIMESTEP
0
ITEM: NUMBER OF ATOMS
2
ITEM: BOX BOUNDS pp pp pp
0.0000000000000000e+00 2.5739999999999998e+00
0.0000000000000000e+00 2.5739999999999998e+00
0.0000000000000000e+00 2.5739999999999998e+00
ITEM: ATOMS id x y z
1 0 0 0
2 1.287 1.287 1.287
ITEM: TIMESTEP
1
ITEM: NUMBER OF ATOMS
2
ITEM: BOX BOUNDS pp pp pp
0.0000000000000000e+00 2.5739999999999998e+00
0.0000000000000000e+00 2.5739999999999998e+00
0.0000000000000000e+00 2.5739999999999998e+00
ITEM: ATOMS id x y z
1 0 0 0
2 1.287 1.287 1.287
